# vtk DataFile Version 4.2
vtk output
ASCII
DATASET POLYDATA
POINTS 8 float
64.5 98.5 105.5 64.5 94.5 108.5 63.5 98.5 20.5 
63.5 94.5 18.5 64.5 106.5 69.5 63.5 109.5 66.5 
64.5 21.5 69.5 63.5 18.5 66.5 
LINES 4 12
2 0 1 
2 2 3 
2 4 5 
2 6 7 

CELL_DATA 4
COLOR_SCALARS Colors 3
1 1 1 1 1 1 1 1 1 
0.156863 0.866667 0 
