# vtk DataFile Version 4.2
vtk output
ASCII
DATASET POLYDATA
POINTS 16 float
63.5 44.5 95.5 65.5 46.5 94.5 63.5 83.5 12.5 
65.5 80.5 8.5 63.5 44.5 11.5 65.5 47.5 9.5 
63.5 82.5 95.5 64.5 80.5 94.5 63.5 82.5 112.5 
64.5 80.5 116.5 63.5 121.5 82.5 64.5 122.5 80.5 
63.5 121.5 44.5 65.5 122.5 46.5 63.5 44.5 112.5 
65.5 46.5 116.5 
LINES 8 24
2 0 1 
2 2 3 
2 4 5 
2 6 7 
2 8 9 
2 10 11 
2 12 13 
2 14 15 

CELL_DATA 8
COLOR_SCALARS Colors 3
1 1 1 1 1 1 1 1 1 
1 1 1 1 1 1 
1 1 1 1 1 1 
1 1 1 
