# vtk DataFile Version 4.2
vtk output
ASCII
DATASET POLYDATA
POINTS 12 float
63.5 12.5 47.5 64.5 15.5 72.5 63.5 114.5 47.5 
64.5 111.5 72.5 63.5 13.5 77.5 64.5 15.5 72.5 
63.5 87.5 114.5 63.5 91.5 111.5 63.5 87.5 13.5 
63.5 92.5 15.5 63.5 114.5 77.5 64.5 111.5 72.5 

LINES 6 18
2 0 1 
2 2 3 
2 4 5 
2 6 7 
2 8 9 
2 10 11 

CELL_DATA 6
COLOR_SCALARS Colors 3
1 1 1 1 1 1 1 1 1 
1 1 1 1 1 1 
1 1 1 
