# vtk DataFile Version 4.2
vtk output
ASCII
DATASET POLYDATA
POINTS 16 float
65.5 54.5 122.5 63.5 50.5 120.5 64.5 54.5 4.5 
63.5 50.5 6.5 65.5 72.5 122.5 63.5 77.5 119.5 
64.5 124.5 54.5 64.5 124.5 50.5 64.5 73.5 4.5 
63.5 77.5 6.5 65.5 72.5 94.5 63.5 77.5 94.5 
65.5 54.5 94.5 64.5 51.5 94.5 64.5 124.5 73.5 
64.5 124.5 77.5 
LINES 8 24
2 0 1 
2 2 3 
2 4 5 
2 6 7 
2 8 9 
2 10 11 
2 12 13 
2 14 15 

CELL_DATA 8
COLOR_SCALARS Colors 3
1 1 1 1 1 1 1 1 1 
1 1 1 1 1 1 
1 1 1 1 1 1 
1 1 1 
