# vtk DataFile Version 4.2
vtk output
ASCII
DATASET POLYDATA
POINTS 6 float
64.5 23.5 79.5 64.5 26.5 83.5 64.5 104.5 79.5 
63.5 101.5 85.5 63.5 101.5 24.5 63.5 103.5 35.5 

LINES 3 9
2 0 1 
2 2 3 
2 4 5 

CELL_DATA 3
COLOR_SCALARS Colors 3
1 1 1 1 1 1 1 1 1 

