# vtk DataFile Version 4.2
vtk output
ASCII
DATASET POLYDATA
POINTS 12 float
64.5 117.5 88.5 65.5 119.5 85.5 64.5 39.5 99.5 
63.5 41.5 105.5 65.5 88.5 19.5 63.5 85.5 15.5 
63.5 88.5 99.5 63.5 85.5 105.5 63.5 117.5 39.5 
63.5 119.5 41.5 63.5 39.5 19.5 63.5 41.5 15.5 

LINES 6 18
2 0 1 
2 2 3 
2 4 5 
2 6 7 
2 8 9 
2 10 11 

CELL_DATA 6
COLOR_SCALARS Colors 3
1 1 1 1 1 1 1 1 1 
1 1 1 1 1 1 
1 1 1 
