# vtk DataFile Version 4.2
vtk output
ASCII
DATASET POLYDATA
POINTS 8 float
64.5 15.5 72.5 63.5 13.5 77.5 63.5 91.5 111.5 
63.5 87.5 114.5 63.5 92.5 15.5 63.5 87.5 13.5 
64.5 111.5 72.5 63.5 114.5 77.5 
LINES 4 12
2 0 1 
2 2 3 
2 4 5 
2 6 7 

CELL_DATA 4
COLOR_SCALARS Colors 3
1 1 1 1 1 1 1 1 1 
0.0313725 0.521569 0.00392157 
